
Host: CHEM9LYY31VAWS

Timers On : Thu May  1 13:12:27 2025
Timers Off: Thu May  1 13:20:10 2025

Wall Time:      463.39 seconds

                                                       Time (seconds)
Module                                       User      System        Wall        Calls

--------------------------------------------------------------------------------------

**************************************************************************************

Host: Jessicas-iMac.local

Timers On : Mon May  5 15:12:07 2025
Timers Off: Mon May  5 16:11:42 2025

Wall Time:     3574.76 seconds

                                                       Time (seconds)
Module                                       User      System        Wall        Calls

--------------------------------------------------------------------------------------

**************************************************************************************

Host: CHEM9QDFT72ALT

Timers On : Thu May 15 10:50:13 2025
Timers Off: Fri May 16 12:57:40 2025

Wall Time:    94047.26 seconds

                                                       Time (seconds)
Module                                       User      System        Wall        Calls

--------------------------------------------------------------------------------------

**************************************************************************************

Host: CHEM9QDFT72ALT

Timers On : Thu May 15 11:09:17 2025
Timers Off: Fri May 16 12:57:40 2025

Wall Time:    92903.02 seconds

                                                       Time (seconds)
Module                                       User      System        Wall        Calls

--------------------------------------------------------------------------------------

**************************************************************************************

Host: Jessicas-iMac.local

Timers On : Wed Jun 25 15:06:33 2025
Timers Off: Wed Jun 25 16:47:11 2025

Wall Time:     5468.30 seconds

                                                       Time (seconds)
Module                                       User      System        Wall        Calls

--------------------------------------------------------------------------------------

**************************************************************************************

Host: CHEM9LYY31VAWS

Timers On : Fri Jun 27 14:21:48 2025
Timers Off: Fri Jun 27 15:50:01 2025

Wall Time:     5292.69 seconds

                                                       Time (seconds)
Module                                       User      System        Wall        Calls

--------------------------------------------------------------------------------------

**************************************************************************************

Host: CHEM9LYY31VAWS

Timers On : Mon Jun 30 14:32:12 2025
Timers Off: Mon Jun 30 14:52:07 2025

Wall Time:     1194.84 seconds

                                                       Time (seconds)
Module                                       User      System        Wall        Calls

--------------------------------------------------------------------------------------

**************************************************************************************

Host: CHEM9LYY31VAWS

Timers On : Mon Jun 30 14:52:10 2025
Timers Off: Mon Jun 30 15:42:31 2025

Wall Time:     3020.57 seconds

                                                       Time (seconds)
Module                                       User      System        Wall        Calls

--------------------------------------------------------------------------------------

**************************************************************************************

Host: CHEM9QDFT72ALT

Timers On : Mon Jun 30 15:57:11 2025
Timers Off: Mon Jun 30 17:20:39 2025

Wall Time:     5008.21 seconds

                                                       Time (seconds)
Module                                       User      System        Wall        Calls

--------------------------------------------------------------------------------------

**************************************************************************************

Host: Jessicas-iMac.local

Timers On : Thu Jun 26 16:27:41 2025
Timers Off: Wed Jul  2 10:44:11 2025

Wall Time:    61997.59 seconds

                                                       Time (seconds)
Module                                       User      System        Wall        Calls

--------------------------------------------------------------------------------------

**************************************************************************************

Host: Jessicas-iMac.local

Timers On : Thu Jun 26 16:42:03 2025
Timers Off: Wed Jul  2 10:44:12 2025

Wall Time:    61135.73 seconds

                                                       Time (seconds)
Module                                       User      System        Wall        Calls

--------------------------------------------------------------------------------------

**************************************************************************************

Host: Jessicas-iMac.local

Timers On : Wed Jul  2 10:44:24 2025
Timers Off: Wed Jul  2 11:25:14 2025

Wall Time:     2429.13 seconds

                                                       Time (seconds)
Module                                       User      System        Wall        Calls

--------------------------------------------------------------------------------------

**************************************************************************************

Host: Jessicas-iMac.local

Timers On : Wed Jul  2 11:25:35 2025
Timers Off: Wed Jul  2 12:02:42 2025

Wall Time:     2227.01 seconds

                                                       Time (seconds)
Module                                       User      System        Wall        Calls

--------------------------------------------------------------------------------------

**************************************************************************************

Host: Jessicas-iMac.local

Timers On : Wed Jul  2 12:02:48 2025
Timers Off: Wed Jul  2 15:23:14 2025

Wall Time:     3605.50 seconds

                                                       Time (seconds)
Module                                       User      System        Wall        Calls

--------------------------------------------------------------------------------------

**************************************************************************************

Host: Jessicas-iMac.local

Timers On : Thu Jul  3 10:46:36 2025
Timers Off: Thu Jul  3 10:53:58 2025

Wall Time:      441.91 seconds

                                                       Time (seconds)
Module                                       User      System        Wall        Calls

--------------------------------------------------------------------------------------

**************************************************************************************

Host: Jessicas-iMac.local

Timers On : Wed Jul  2 15:23:17 2025
Timers Off: Thu Jul  3 10:54:39 2025

Wall Time:    11105.40 seconds

                                                       Time (seconds)
Module                                       User      System        Wall        Calls

--------------------------------------------------------------------------------------

**************************************************************************************

Host: Jessicas-iMac.local

Timers On : Thu Jul  3 10:54:46 2025
Timers Off: Thu Jul  3 11:09:30 2025

Wall Time:      884.12 seconds

                                                       Time (seconds)
Module                                       User      System        Wall        Calls

--------------------------------------------------------------------------------------

**************************************************************************************

Host: Jessicas-iMac.local

Timers On : Thu Jul  3 11:09:34 2025
Timers Off: Thu Jul  3 11:10:47 2025

Wall Time:       72.17 seconds

                                                       Time (seconds)
Module                                       User      System        Wall        Calls

--------------------------------------------------------------------------------------

**************************************************************************************

Host: CHEM9QDFT72ALT

Timers On : Thu Jul  3 11:27:24 2025
Timers Off: Thu Jul  3 11:27:42 2025

Wall Time:       18.05 seconds

                                                       Time (seconds)
Module                                       User      System        Wall        Calls

--------------------------------------------------------------------------------------

**************************************************************************************

Host: CHEM9QDFT72ALT

Timers On : Thu Jul  3 11:30:42 2025
Timers Off: Thu Jul  3 15:20:57 2025

Wall Time:    13814.86 seconds

                                                       Time (seconds)
Module                                       User      System        Wall        Calls

--------------------------------------------------------------------------------------

**************************************************************************************

Host: CHEM9LYY31VAWS

Timers On : Mon Jul  7 09:31:38 2025
Timers Off: Mon Jul  7 09:31:38 2025

Wall Time:        0.22 seconds

                                                       Time (seconds)
Module                                       User      System        Wall        Calls

--------------------------------------------------------------------------------------

**************************************************************************************

Host: CHEM9LYY31VAWS

Timers On : Mon Jul  7 09:35:24 2025
Timers Off: Mon Jul  7 09:35:42 2025

Wall Time:       18.02 seconds

                                                       Time (seconds)
Module                                       User      System        Wall        Calls

--------------------------------------------------------------------------------------

**************************************************************************************

Host: CHEM9LYY31VAWS

Timers On : Mon Jul  7 09:16:15 2025
Timers Off: Mon Jul  7 11:03:52 2025

Wall Time:     6456.42 seconds

                                                       Time (seconds)
Module                                       User      System        Wall        Calls

--------------------------------------------------------------------------------------

**************************************************************************************

Host: CHEM9QDFT72ALT

Timers On : Tue Sep  2 13:16:29 2025
Timers Off: Wed Sep  3 11:36:35 2025

Wall Time:    80405.84 seconds

                                                       Time (seconds)
Module                                       User      System        Wall        Calls

--------------------------------------------------------------------------------------

**************************************************************************************
