
Host: CHEM9LYY31VAWS

Timers On : Thu May  1 13:12:27 2025
Timers Off: Thu May  1 13:20:10 2025

Wall Time:      463.39 seconds

                                                       Time (seconds)
Module                                       User      System        Wall        Calls

--------------------------------------------------------------------------------------

**************************************************************************************
